
                                 *****************
                                 * O   R   C   A *
                                 *****************

                                            #,                                       
                                            ###                                      
                                            ####                                     
                                            #####                                    
                                            ######                                   
                                           ########,                                 
                                     ,,################,,,,,                         
                               ,,#################################,,                 
                          ,,##########################################,,             
                       ,#########################################, ''#####,          
                    ,#############################################,,   '####,        
                  ,##################################################,,,,####,       
                ,###########''''           ''''###############################       
              ,#####''   ,,,,##########,,,,          '''####'''          '####       
            ,##' ,,,,###########################,,,                        '##       
           ' ,,###''''                  '''############,,,                           
         ,,##''                                '''############,,,,        ,,,,,,###''
      ,#''                                            '''#######################'''  
     '                                                          ''''####''''         
             ,#######,   #######,   ,#######,      ##                                
            ,#'     '#,  ##    ##  ,#'     '#,    #''#        ,####,   ,####,        
            ##       ##  ##   ,#'  ##            #'  '#       #'       #'  '#        
            ##       ##  #######   ##           ,######,      #####,   #    #        
            '#,     ,#'  ##    ##  '#,     ,#' ,#      #,     #,   #   #,  ,#        
             '#######'   ##     ##  '#######'  #'      '#     '####' # '####'        



                #########################################################
                #                        -***-                          #
                #          Department of theory and spectroscopy        #
                #                                                       #
                #                      Frank Neese                      #
                #                                                       #
                #     Directorship, Architecture, Infrastructure        #
                #                    SHARK, DRIVERS                     #
                #        Core code/Algorithms in most modules           #
                #                                                       #
                #        Max Planck Institute fuer Kohlenforschung      #
                #                Kaiser Wilhelm Platz 1                 #
                #                 D-45470 Muelheim/Ruhr                 #
                #                      Germany                          #
                #                                                       #
                #                  All rights reserved                  #
                #                        -***-                          #
                #########################################################


                         Program Version 6.0.1  -  RELEASE   -


 With contributions from (in alphabetic order):
[Max-Planck-Institut fuer Kohlenforschung]                               
  Daniel Aravena         : Magnetic Suceptibility                        
  Michael Atanasov       : Ab Initio Ligand Field Theory (pilot matlab implementation)
  Alexander A. Auer      : GIAO ZORA, VPT2 properties, NMR spectrum      
  Ute Becker             : All parallelization in ORCA, NUMFREQ, NUMCALC 
  Giovanni Bistoni       : ED, misc. LED, open-shell LED, HFLD           
  Martin Brehm           : Molecular dynamics                            
  Dmytro Bykov           : pre 5.0 version of the SCF Hessian            
  Marcos Casanova-Páez   : Triplet and SCS-CIS(D). UHF-(DLPNO)-IP/EA/STEOM-CCSD. UHF-CVS-IP/STEOM-CCSD   
  Vijay G. Chilkuri      : MRCI spin determinant printing, contributions to CSF-ICE 
  Pauline Colinet        : FMM embedding                                 
  Dipayan Datta          : RHF DLPNO-CCSD density                        
  Achintya Kumar Dutta   : EOM-CC, STEOM-CC                              
  Nicolas Foglia         : Exact transition moments, OPA infrastructure, MCD improvements    
  Dmitry Ganyushin       : Spin-Orbit,Spin-Spin,Magnetic field MRCI      
  Miquel Garcia-Rates    : C-PCM and meta-GGA Hessian, CCSD/C-PCM, Gaussian charge scheme 
  Tiago L. C. Gouveia    : GS-ROHF, GS-ROCIS                             
  Yang Guo               : DLPNO-NEVPT2, F12-NEVPT2, CIM, IAO-localization        
  Andreas Hansen         : Spin unrestricted coupled pair/coupled cluster methods 
  Ingolf Harden          : AUTO-CI MPn and infrastructure                
  Benjamin Helmich-Paris : MC-RPA, TRAH-(SCF,CASSCF), AVAS, COSX integrals, SCF dyn. polar. 
  Lee Huntington         : MR-EOM, pCC                                   
  Robert Izsak           : Overlap fitted RIJCOSX, COSX-SCS-MP3, EOM     
  Riya Kayal             : Wick's Theorem for AUTO-CI, AUTO-CI UHF-CCSDT 
  Emily Kempfer          : AUTO-CI, RHF CISDT and CCSDT                  
  Christian Kollmar      : KDIIS, OOCD, Brueckner-CCSD(T), CCSD density, CASPT2, CASPT2-K, improved NEVPT2 
  Axel Koslowski         : Symmetry handling                             
  Simone Kossmann        : meta-GGA functionals, TD-DFT gradient, OOMP2, (MP2 Hessian; deprecated post 5.0) 
  Lucas Lang             : DCDCAS                                        
  Marvin Lechner         : AUTO-CI (C++ implementation), FIC-MRCC        
  Spencer Leger          : CASSCF response                               
  Dagmar Lenk            : GEPOL surface, SMD, ORCA-2-JSON               
  Dimitrios Liakos       : Extrapolation schemes; Compound Job, initial MDCI parallelization 
  Dimitrios Manganas     : Further ROCIS development; embedding schemes. LFT, Crystal Embedding 
  Dimitrios Pantazis     : SARC Basis sets                               
  Anastasios Papadopoulos: AUTO-CI, single reference methods and gradients 
  Taras Petrenko         : pre 6.0 DFT Hessian and TD-DFT gradient, (ASA, deprecated), ECA, 1-Electron XAS/XES, NRVS 
  Peter Pinski           : DLPNO-MP2, DLPNO-MP2 Gradient                 
  Christoph Reimann      : Effective Core Potentials                     
  Marius Retegan         : Local ZFS, SOC                                
  Christoph Riplinger    : Optimizer, TS searches, QM/MM, DLPNO-CCSD(T), (RO)-DLPNO pert. Triples 
  Michael Roemelt        : Original ROCIS implementation                 
  Masaaki Saitow         : Open-shell DLPNO-CCSD energy and density      
  Barbara Sandhoefer     : DKH picture change effects                    
  Kantharuban Sivalingam : CASSCF convergence/infrastructure, NEVPT2 and variants, FIC-MRCI 
  Bernardo de Souza      : ESD, SOC TD-DFT                               
  Georgi L. Stoychev     : AutoAux, RI-MP2 NMR, DLPNO-MP2 response, X2C  
  Van Anh Tran           : RI-MP2 g-tensors                              
  Willem Van den Heuvel  : Paramagnetic NMR                              
  Zikuan Wang            : NOTCH, Electric field optimization            
  Frank Wennmohs         : Technical directorship and infrastructure     
  Hang Xu                : AUTO-CI-Response properties                   
                                                                         
[FACCTs GmbH]                                                            
  Markus Bursch, Miquel Garcia-Rates, Christoph Riplinger, Bernardo de Souza, Georgi L. Stoychev 
                                                                 
  APM, Basis sets (HGBS, AHGBS, def-TZVP (Ac-Lr), def2-XVPD (La-Lu)), CI-OPT, improved COSX, DLPNO-Multilevel,           
  DOCKER, DRACO, updates on ESD, GOAT, IRC, LR-CPCM, MBIS, meta-GGA TD-DFT gradient, ML-optimized integration grids, 
  MM, NACMEs, nearIR, NEB, NEB-TS, NL-DFT gradient (VV10), 2- and 3-layer-ONIOM, interface openCOSMO-RS, QMMM,   
  Crystal-QMMM, SF, symmetry and pop. for TD-DFT, r2SCAN hybrids, SOLVATOR                                   
                                                                         
[Other institutions]                                                     
  V. Asgeirsson          : NEB                                           
  Christoph Bannwarth    : sTDA-DFT, sTD-DFT, PBEh-3c, B97-3c, D3        
  Sebastian Ehlert       : rSCAN, r2SCAN, r2SCAN-3c, D4, dhf basis sets  
  Marvin Friede          : D4 for Fr, Ra, Ac-Lr                          
  Lars Goerigk           : TD-DFT with DH, B97 family of functionals     
  Stefan Grimme          : VdW corrections, initial TS optimization, DFT functionals, gCP, sTDA/sTD-DF 
  Waldemar Hujo          : DFT-NL                                        
  H. Jonsson             : NEB                                           
  Holger Kruse           : gCP                                           
  Marcel Mueller         : wB97X-3c, vDZP basis set                      
  Hagen Neugebauer       : wr2SCAN                                       
  Tobias Risthaus        : range-separated hybrid DFT                    
  Lukas Wittmann         : regularized MP2, r2SCAN double-hybrids, wr2SCAN        
                                                                         
We gratefully acknowledge several colleagues who have allowed us to      
interface, adapt or use parts of their codes:                            
  Ed Valeev, F. Pavosevic, A. Kumar             : LibInt (2-el integral package), F12 methods 
  Garnet Chan, S. Sharma, J. Yang, R. Olivares  : DMRG                   
  Ulf Ekstrom                                   : XCFun DFT Library      
  Mihaly Kallay                                 : mrcc  (arbitrary order and MRCC methods)
  Frank Weinhold                                : gennbo (NPA and NBO analysis)           
  Simon Mueller                                 : openCOSMO-RS                            
  Christopher J. Cramer and Donald G. Truhlar   : smd solvation model                     
  S Lehtola, MJT Oliveira, MAL Marques          : LibXC Library                           
  Liviu Ungur et al                             : ANISO software                          


 Your calculation uses the libint2 library for the computation of 2-el integrals
 For citations please refer to: http://libint.valeyev.net

 Your ORCA version has been built with support for libXC version: 6.2.2
 For citations please refer to: https://libxc.gitlab.io

 This ORCA versions uses:
   CBLAS   interface :  Fast vector & matrix operations
   LAPACKE interface :  Fast linear algebra routines
   SCALAPACK package :  Parallel linear algebra routines
   Shared memory     :  Shared parallel matrices
   BLAS/LAPACK       :  OpenBLAS 0.3.27  USE64BITINT DYNAMIC_ARCH NO_AFFINITY Zen SINGLE_THREADED
        Core in use  :  Zen
   Copyright (c) 2011-2014, The OpenBLAS Project


NOTE: MaxCore=23000 MB was set to SCF,MP2,MDCI,CIPSI,MRCI and CIS
      => If you want to overwrite this, your respective input block should be placed after the MaxCore statement


***************************************
The coordinates will be read from file: pep-edit_cilengitide.xyz
***************************************


Your calculation utilizes the semiempirical GFN2-xTB method
Please cite in your paper:
C. Bannwarth, Ehlert S., S. Grimme,  J. Chem. Theory Comput., 15, (2019), 1652.
   

================================================================================

================================================================================
                                        WARNINGS
                       Please study these warnings very carefully!
================================================================================


WARNING: Geometry Optimization
  ===> : Switching off AutoStart
         For restart on a previous wavefunction, please use MOREAD

WARNING: Found dipole moment calculation with XTB calculation
  ===> : Switching off dipole moment calculation


================================================================================
                                       INPUT FILE
================================================================================
NAME = /shared/projects/antioxydant/pep_edit/goat/cilengitide/cilengitide.inp
|  1> !GOAT XTB ALPB(water)
|  2> 
|  3> %PAL NPROCS 8 END
|  4> 
|  5> %maxcore 23000
|  6> 
|  7> *XYZFILE 0 1 pep-edit_cilengitide.xyz
|  8> 
|  9> 
| 10>                          ****END OF INPUT****
================================================================================

                       *****************************
                       * Geometry Optimization Run *
                       *****************************


                       *********************************
                       *              GOAT             *
                       * Global Optimization Algorithm *
                       *********************************

Geometry optimization settings:
Update method            Update   .... BFGS
Choice of coordinates    CoordSys .... (2022) Redundant Internals
Initial Hessian          InHess   .... Almloef's Model
Max. no of cycles        MaxIter  .... 246

Convergence Tolerances:
Energy Change            TolE     ....  5.0000e-06 Eh
Max. Gradient            TolMAXG  ....  3.0000e-04 Eh/bohr
RMS Gradient             TolRMSG  ....  1.0000e-04 Eh/bohr
Max. Displacement        TolMAXD  ....  4.0000e-03 bohr
RMS Displacement         TolRMSD  ....  2.0000e-03 bohr
Strict Convergence                .... True

------------------------------------------------------------------------------
                        ORCA OPTIMIZATION COORDINATE SETUP
------------------------------------------------------------------------------

The optimization will be done in redundant internal coordinates (2022)
Making redundant internal coordinates   ...  (2022 redundants) done
Evaluating the initial hessian          ...  (Almloef) done
Evaluating the coordinates              ...  done
Calculating the B-matrix                .... done
Calculating the G-matrix                .... done
Diagonalizing the G-matrix              .... done
Small eigenvalue found = 1.360e-03
Small eigenvalue found = 1.601e-03
Small eigenvalue found = 2.544e-03
Small eigenvalue found = 5.206e-03
Small eigenvalue found = 6.080e-03
Small eigenvalue found = 7.724e-03
Small eigenvalue found = 8.885e-03
Small eigenvalue found = 1.005e-02
Small eigenvalue found = 1.233e-02
Small eigenvalue found = 1.488e-02
Small eigenvalue found = 1.779e-02
Small eigenvalue found = 1.948e-02
Small eigenvalue found = 2.353e-02
Small eigenvalue found = 2.803e-02
The first mode is                       ....  167
The number of degrees of freedom        ....  240

    -----------------------------------------------------------------
                    Redundant Internal Coordinates


    -----------------------------------------------------------------
         Definition                    Initial Value    Approx d2E/dq
    -----------------------------------------------------------------
      1. B(C   1,N   0)                  1.4285         0.485752   
      2. B(N   2,C   1)                  1.2873         0.816074   
      3. B(N   3,C   1)                  1.4291         0.484741   
      4. B(C   4,N   3)                  1.4452         0.456805   
      5. B(C   5,C   4)                  1.5138         0.396539   
      6. B(C   6,C   5)                  1.4946         0.425458   
      7. B(C   7,C   6)                  1.5195         0.388301   
      8. B(N   8,C   7)                  1.4848         0.395083   
      9. B(C   9,C   7)                  1.4781         0.452043   
     10. B(O  10,C   9)                  1.2487         0.940351   
     11. B(N  11,C   9)                  1.4340         0.476047   
     12. B(C  12,N  11)                  1.4448         0.457525   
     13. B(C  13,C  12)                  1.4657         0.473159   
     14. B(O  14,C  13)                  1.2530         0.925522   
     15. B(N  15,C  13)                  1.4297         0.483644   
     16. B(C  16,N  15)                  1.4763         0.407572   
     17. B(C  17,C  16)                  1.4806         0.447947   
     18. B(C  18,C  17)                  1.4605         0.482258   
     19. B(O  19,C  18)                  1.2719         0.863417   
     20. B(C  20,C  16)                  1.4951         0.424655   
     21. B(O  21,C  20)                  1.2385         0.976460   
     22. B(O  22,C  18)                  1.3989         0.541639   
     23. B(N  23,C  20)                  1.4136         0.513066   
     24. B(C  24,N  23)                  1.4490         0.450529   
     25. B(C  25,C  24)                  1.5190         0.388974   
     26. B(C  26,C  25)                  1.4431         0.513995   
     27. B(C  27,C  26)                  1.3798         0.648633   
     28. B(C  28,C  27)                  1.3732         0.664694   
     29. B(C  29,C  28)                  1.3678         0.678011   
     30. B(C  30,C  29)                  1.3751         0.659905   
     31. B(C  31,C  26)                  1.4022         0.597327   
     32. B(C  31,C  30)                  1.3722         0.666931   
     33. B(C  32,C  24)                  1.4724         0.461549   
     34. B(O  33,C  32)                  1.2346         0.990570   
     35. B(C  35,C  34)                  1.5406         0.359270   
     36. B(C  36,C  35)                  1.4983         0.419749   
     37. B(C  37,C  35)                  1.4364         0.526875   
     38. B(N  38,C  37)                  1.4114         0.517281   
     39. B(N  38,C  32)                  1.4519         0.445707   
     40. B(C  39,N  38)                  1.4335         0.476866   
     41. B(C  40,C  37)                  1.5440         0.354896   
     42. B(C  40,N   8)                  1.4150         0.510403   
     43. B(O  41,C  40)                  1.2296         1.008568   
     44. B(H  42,N   0)                  1.0375         0.391141   
     45. B(H  43,N   0)                  1.0468         0.377951   
     46. B(H  44,N   2)                  1.0375         0.391066   
     47. B(H  45,N   2)                  1.0579         0.362853   
     48. B(H  46,N   3)                  1.0516         0.371335   
     49. B(H  47,C   4)                  1.1095         0.335220   
     50. B(H  48,C   4)                  1.1282         0.312993   
     51. B(H  49,C   5)                  1.1037         0.342414   
     52. B(H  50,C   5)                  1.1281         0.313075   
     53. B(H  51,C   6)                  1.1043         0.341620   
     54. B(H  52,C   6)                  1.1005         0.346499   
     55. B(H  53,C   7)                  1.0821         0.370771   
     56. B(H  54,N   8)                  1.0063         0.438581   
     57. B(H  55,N  11)                  1.0093         0.433840   
     58. B(H  56,C  12)                  1.1340         0.306374   
     59. B(H  57,C  12)                  1.1171         0.325945   
     60. B(H  58,N  15)                  1.0164         0.422702   
     61. B(H  59,C  16)                  1.1362         0.303904   
     62. B(H  60,C  17)                  1.1310         0.309733   
     63. B(H  61,C  17)                  1.1185         0.324288   
     64. B(H  62,N  15)                  2.2800         0.004074   
     65. B(H  62,N  23)                  1.0245         0.410269   
     66. B(H  63,C  24)                  1.1151         0.328408   
     67. B(H  64,C  25)                  1.1211         0.321179   
     68. B(H  65,C  25)                  1.1261         0.315339   
     69. B(H  66,H  49)                  3.3264         0.000019   
     70. B(H  66,C  27)                  1.0898         0.360403   
     71. B(H  67,C  28)                  1.0660         0.393227   
     72. B(H  68,C  29)                  1.0957         0.352621   
     73. B(H  69,C  30)                  1.0835         0.368761   
     74. B(H  70,C  31)                  1.0730         0.383245   
     75. B(H  71,C  34)                  1.0946         0.354052   
     76. B(H  72,C  34)                  1.1143         0.329336   
     77. B(H  73,C  34)                  1.1161         0.327197   
     78. B(H  74,C  35)                  1.1176         0.325341   
     79. B(H  75,C  36)                  1.1052         0.340603   
     80. B(H  76,C  36)                  1.1193         0.323304   
     81. B(H  77,C  36)                  1.1225         0.319549   
     82. B(H  78,C  37)                  1.1490         0.289878   
     83. B(H  79,C  39)                  1.0953         0.353214   
     84. B(H  80,C  39)                  1.1369         0.303065   
     85. B(H  81,C  39)                  1.1200         0.322497   
     86. A(H  42,N   0,H  43)          123.2121         0.292099   
     87. A(C   1,N   0,H  42)          118.2827         0.338411   
     88. A(C   1,N   0,H  43)          118.5051         0.336482   
     89. A(N   0,C   1,N   3)          120.6980         0.392772   
     90. A(N   0,C   1,N   2)          121.3337         0.430782   
     91. A(N   2,C   1,N   3)          117.9683         0.430621   
     92. A(H  44,N   2,H  45)          115.9758         0.290225   
     93. A(C   1,N   2,H  44)          124.1398         0.369475   
     94. A(C   1,N   2,H  45)          119.8844         0.364762   
     95. A(C   4,N   3,H  46)          118.2102         0.332091   
     96. A(C   1,N   3,H  46)          121.9553         0.335379   
     97. A(C   1,N   3,C   4)          119.8345         0.388577   
     98. A(N   3,C   4,H  48)          111.5646         0.325624   
     99. A(H  47,C   4,H  48)          105.4153         0.281392   
    100. A(C   5,C   4,H  47)          112.4204         0.323684   
    101. A(N   3,C   4,H  47)          106.0266         0.329327   
    102. A(C   5,C   4,H  48)          108.5783         0.320068   
    103. A(N   3,C   4,C   5)          112.6214         0.377638   
    104. A(C   6,C   5,H  50)          109.6749         0.323793   
    105. A(H  49,C   5,H  50)          111.2390         0.282330   
    106. A(C   4,C   5,H  49)          106.7097         0.324814   
    107. A(C   4,C   5,C   6)          111.9707         0.375388   
    108. A(C   6,C   5,H  49)          112.3465         0.328602   
    109. A(C   4,C   5,H  50)          104.6148         0.320081   
    110. A(H  51,C   6,H  52)          107.8067         0.286716   
    111. A(C   5,C   6,H  52)          109.6842         0.329246   
    112. A(C   7,C   6,H  52)          110.1101         0.324327   
    113. A(C   7,C   6,H  51)          108.3672         0.323573   
    114. A(C   5,C   6,H  51)          108.4273         0.328476   
    115. A(C   5,C   6,C   7)          112.3177         0.374030   
    116. A(C   6,C   7,C   9)          110.1485         0.377968   
    117. A(N   8,C   7,H  53)          107.2138         0.326926   
    118. A(N   8,C   7,C   9)          108.1931         0.376715   
    119. A(C   6,C   7,H  53)          108.7096         0.327961   
    120. A(C   6,C   7,N   8)          108.7331         0.366985   
    121. A(C   9,C   7,H  53)          113.7012         0.336325   
    122. A(C  40,N   8,H  54)          117.8432         0.347842   
    123. A(C   7,N   8,C  40)          121.8382         0.382298   
    124. A(C   7,N   8,H  54)          120.3083         0.333265   
    125. A(O  10,C   9,N  11)          112.8293         0.440317   
    126. A(C   7,C   9,N  11)          125.6456         0.389115   
    127. A(C   7,C   9,O  10)          121.5207         0.439108   
    128. A(C   9,N  11,C  12)          115.6594         0.387458   
    129. A(C  12,N  11,H  55)          128.6200         0.340893   
    130. A(C   9,N  11,H  55)          115.7204         0.343166   
    131. A(C  13,C  12,H  57)          112.0636         0.331711   
    132. A(C  13,C  12,H  56)          106.0151         0.328333   
    133. A(N  11,C  12,H  56)          104.5504         0.324566   
    134. A(N  11,C  12,H  57)          111.4517         0.327891   
    135. A(N  11,C  12,C  13)          113.6576         0.389520   
    136. A(H  56,C  12,H  57)          108.5442         0.279251   
    137. A(O  14,C  13,N  15)          113.5307         0.440312   
    138. A(C  12,C  13,N  15)          128.7429         0.393321   
    139. A(C  12,C  13,O  14)          117.7255         0.441474   
    140. A(C  16,N  15,H  58)          123.2496         0.332947   
    141. A(C  13,N  15,H  58)          115.6144         0.342581   
    142. A(C  13,N  15,C  16)          121.1251         0.380794   
    143. A(C  17,C  16,H  59)          105.6664         0.324953   
    144. A(C  20,C  16,H  59)          106.0929         0.322118   
    145. A(N  15,C  16,H  59)          107.4638         0.318061   
    146. A(N  15,C  16,C  20)          111.5315         0.374679   
    147. A(N  15,C  16,C  17)          111.4603         0.378153   
    148. A(C  17,C  16,C  20)          114.0819         0.383274   
    149. A(C  16,C  17,H  61)          107.7427         0.328445   
    150. A(C  18,C  17,H  61)          112.7793         0.332479   
    151. A(C  18,C  17,H  60)          106.5550         0.329961   
    152. A(C  16,C  17,H  60)          108.5644         0.325969   
    153. A(C  16,C  17,C  18)          117.0443         0.391869   
    154. A(H  60,C  17,H  61)          103.1874         0.279502   
    155. A(C  17,C  18,O  22)          122.7855         0.402571   
    156. A(C  17,C  18,O  19)          119.3644         0.437475   
    157. A(O  19,C  18,O  22)          117.8501         0.443811   
    158. A(O  21,C  20,N  23)          115.6627         0.449383   
    159. A(C  16,C  20,O  21)          124.5180         0.437146   
    160. A(C  16,C  20,N  23)          119.8190         0.389957   
    161. A(C  20,N  23,H  62)          114.7214         0.344263   
    162. A(C  20,N  23,C  24)          128.9454         0.391503   
    163. A(C  24,N  23,H  62)          116.3111         0.336862   
    164. A(N  23,C  24,C  25)          109.0498         0.375484   
    165. A(C  32,C  24,H  63)          112.7061         0.330762   
    166. A(C  25,C  24,H  63)          104.0093         0.321580   
    167. A(N  23,C  24,H  63)          110.6812         0.327465   
    168. A(C  25,C  24,C  32)          110.9351         0.379446   
    169. A(N  23,C  24,C  32)          109.3237         0.386795   
    170. A(C  26,C  25,H  65)          108.3689         0.334457   
    171. A(C  24,C  25,H  65)          106.2974         0.319452   
    172. A(C  26,C  25,H  64)          113.8028         0.335479   
    173. A(C  24,C  25,H  64)          106.2976         0.320411   
    174. A(H  64,C  25,H  65)          103.9636         0.279860   
    175. A(C  24,C  25,C  26)          117.0890         0.386608   
    176. A(C  27,C  26,C  31)          115.2178         0.434683   
    177. A(C  25,C  26,C  31)          118.0188         0.416951   
    178. A(C  25,C  26,C  27)          126.7543         0.423125   
    179. A(C  28,C  27,H  66)          116.1779         0.357151   
    180. A(C  26,C  27,H  66)          119.8302         0.355670   
    181. A(C  26,C  27,C  28)          123.9795         0.443146   
    182. A(C  27,C  28,H  67)          121.4611         0.362493   
    183. A(C  29,C  28,H  67)          120.1787         0.363724   
    184. A(C  27,C  28,C  29)          118.3602         0.446714   
    185. A(C  30,C  29,H  68)          121.7719         0.355393   
    186. A(C  28,C  29,H  68)          117.3920         0.357030   
    187. A(C  28,C  29,C  30)          120.8360         0.446129   
    188. A(C  29,C  30,H  69)          117.2264         0.358105   
    189. A(C  31,C  30,H  69)          123.4771         0.358751   
    190. A(C  29,C  30,C  31)          119.2965         0.444800   
    191. A(C  30,C  31,H  70)          118.0127         0.361113   
    192. A(C  26,C  31,H  70)          119.6774         0.354409   
    193. A(C  26,C  31,C  30)          122.3100         0.436866   
    194. A(O  33,C  32,N  38)          110.1229         0.439219   
    195. A(C  24,C  32,N  38)          123.3018         0.386070   
    196. A(C  24,C  32,O  33)          126.5635         0.444927   
    197. A(C  35,C  34,H  73)          111.1306         0.317244   
    198. A(H  71,C  34,H  72)          114.3227         0.286044   
    199. A(C  35,C  34,H  72)          108.5153         0.317581   
    200. A(C  35,C  34,H  71)          112.6454         0.321356   
    201. A(H  72,C  34,H  73)          104.7086         0.282557   
    202. A(H  71,C  34,H  73)          105.2070         0.285753   
    203. A(C  36,C  35,C  37)          117.7579         0.393482   
    204. A(C  34,C  35,C  37)          107.8660         0.382946   
    205. A(C  34,C  35,C  36)          104.5420         0.368206   
    206. A(C  37,C  35,H  74)          115.8299         0.337587   
    207. A(C  36,C  35,H  74)          106.0309         0.325121   
    208. A(C  34,C  35,H  74)          103.3098         0.316951   
    209. A(H  76,C  36,H  77)          104.1217         0.280720   
    210. A(H  75,C  36,H  77)          103.1360         0.282995   
    211. A(C  35,C  36,H  77)          106.5483         0.324163   
    212. A(H  75,C  36,H  76)          113.7721         0.283509   
    213. A(C  35,C  36,H  76)          113.4087         0.324785   
    214. A(C  35,C  36,H  75)          114.4199         0.327584   
    215. A(N  38,C  37,C  40)          106.0738         0.378514   
    216. A(C  35,C  37,C  40)          109.9982         0.382133   
    217. A(C  35,C  37,N  38)          124.5142         0.405600   
    218. A(C  40,C  37,H  78)           96.1123         0.310458   
    219. A(N  38,C  37,H  78)          106.5144         0.328187   
    220. A(C  35,C  37,H  78)          109.8664         0.331177   
    221. A(C  37,N  38,C  39)          120.3231         0.395986   
    222. A(C  32,N  38,C  39)          113.0232         0.385811   
    223. A(C  32,N  38,C  37)          126.5043         0.391327   
    224. A(H  80,C  39,H  81)          100.8619         0.278328   
    225. A(H  79,C  39,H  81)          106.8044         0.285005   
    226. A(N  38,C  39,H  81)          114.1852         0.329560   
    227. A(H  79,C  39,H  80)          111.7844         0.282267   
    228. A(N  38,C  39,H  80)          109.9525         0.326200   
    229. A(N  38,C  39,H  79)          112.6702         0.334565   
    230. A(C  37,C  40,O  41)          122.1058         0.425746   
    231. A(N   8,C  40,O  41)          116.8189         0.451604   
    232. A(N   8,C  40,C  37)          121.0736         0.377638   
    233. D(N   3,C   1,N   0,H  42)    178.7681         0.018624   
    234. D(N   2,C   1,N   0,H  43)    178.7898         0.018624   
    235. D(N   2,C   1,N   0,H  42)     -1.2414         0.018624   
    236. D(N   3,C   1,N   0,H  43)     -1.2007         0.018624   
    237. D(H  44,N   2,C   1,N   0)    179.9584         0.057059   
    238. D(H  44,N   2,C   1,N   3)     -0.0509         0.057059   
    239. D(H  45,N   2,C   1,N   3)   -179.9716         0.057059   
    240. D(H  45,N   2,C   1,N   0)      0.0377         0.057059   
    241. D(C   4,N   3,C   1,N   2)      0.0358         0.018545   
    242. D(C   4,N   3,C   1,N   0)   -179.9733         0.018545   
    243. D(H  46,N   3,C   1,N   0)      0.0091         0.018545   
    244. D(H  46,N   3,C   1,N   2)   -179.9817         0.018545   
    245. D(C   5,C   4,N   3,H  46)     -0.1767         0.017809   
    246. D(C   5,C   4,N   3,C   1)    179.8063         0.017809   
    247. D(H  47,C   4,N   3,C   1)    -56.8546         0.017809   
    248. D(H  47,C   4,N   3,H  46)    123.1624         0.017809   
    249. D(H  48,C   4,N   3,C   1)     57.4070         0.017809   
    250. D(C   6,C   5,C   4,H  47)    -59.7488         0.012484   
    251. D(H  49,C   5,C   4,H  48)    -52.6727         0.012484   
    252. D(H  49,C   5,C   4,N   3)   -176.7378         0.012484   
    253. D(H  49,C   5,C   4,H  47)     63.5610         0.012484   
    254. D(C   6,C   5,C   4,N   3)     59.9524         0.012484   
    255. D(C   6,C   5,C   4,H  48)   -175.9826         0.012484   
    256. D(H  51,C   6,C   5,H  49)    179.7526         0.014315   
    257. D(H  51,C   6,C   5,H  50)     55.4931         0.014315   
    258. D(C   7,C   6,C   5,C   4)   -179.9001         0.014315   
    259. D(H  51,C   6,C   5,C   4)    -60.1776         0.014315   
    260. D(C   7,C   6,C   5,H  49)     60.0301         0.014315   
    261. D(C   7,C   6,C   5,H  50)    -64.2293         0.014315   
    262. D(N   8,C   7,C   6,H  51)   -179.7248         0.011992   
    263. D(N   8,C   7,C   6,C   5)    -59.9673         0.011992   
    264. D(C   9,C   7,C   6,H  52)   -179.0175         0.011992   
    265. D(C   9,C   7,C   6,H  51)    -61.3260         0.011992   
    266. D(N   8,C   7,C   6,H  52)     62.5837         0.011992   
    267. D(C   9,C   7,C   6,C   5)     58.4315         0.011992   
    268. D(H  54,N   8,C   7,C   9)    -39.8527         0.013334   
    269. D(H  54,N   8,C   7,C   6)     79.7720         0.013334   
    270. D(C  40,N   8,C   7,H  53)     18.3303         0.013334   
    271. D(C  40,N   8,C   7,C   9)    141.3401         0.013334   
    272. D(C  40,N   8,C   7,C   6)    -99.0352         0.013334   
    273. D(N  11,C   9,C   7,N   8)   -141.3253         0.015068   
    274. D(N  11,C   9,C   7,C   6)     99.9447         0.015068   
    275. D(O  10,C   9,C   7,H  53)    156.8402         0.015068   
    276. D(O  10,C   9,C   7,N   8)     37.8617         0.015068   
    277. D(O  10,C   9,C   7,C   6)    -80.8683         0.015068   
    278. D(H  55,N  11,C   9,O  10)    178.6559         0.017871   
    279. D(H  55,N  11,C   9,C   7)     -2.0960         0.017871   
    280. D(C  12,N  11,C   9,O  10)     -1.2309         0.017871   
    281. D(C  12,N  11,C   9,C   7)    178.0172         0.017871   
    282. D(H  57,C  12,N  11,C   9)    170.1285         0.017866   
    283. D(H  56,C  12,N  11,H  55)   -126.8072         0.017866   
    284. D(H  56,C  12,N  11,C   9)     53.0623         0.017866   
    285. D(C  13,C  12,N  11,H  55)    118.0489         0.017866   
    286. D(C  13,C  12,N  11,C   9)    -62.0817         0.017866   
    287. D(N  15,C  13,C  12,H  56)   -117.3600         0.016506   
    288. D(N  15,C  13,C  12,N  11)     -3.0858         0.016506   
    289. D(O  14,C  13,C  12,H  57)    -55.2603         0.016506   
    290. D(O  14,C  13,C  12,H  56)     62.9926         0.016506   
    291. D(O  14,C  13,C  12,N  11)    177.2667         0.016506   
    292. D(H  58,N  15,C  13,O  14)    175.7106         0.020016   
    293. D(H  58,N  15,C  13,C  12)     -3.9491         0.020016   
    294. D(C  16,N  15,C  13,O  14)     -3.1282         0.020016   
    295. D(C  16,N  15,C  13,C  12)    177.2121         0.020016   
    296. D(H  59,C  16,N  15,H  58)    177.9700         0.015176   
    297. D(H  59,C  16,N  15,C  13)     -3.2821         0.015176   
    298. D(C  20,C  16,N  15,H  58)     62.0882         0.015176   
    299. D(C  20,C  16,N  15,C  13)   -119.1639         0.015176   
    300. D(C  17,C  16,N  15,H  58)    -66.6990         0.015176   
    301. D(C  17,C  16,N  15,C  13)    112.0489         0.015176   
    302. D(H  60,C  17,C  16,H  59)    -63.1742         0.015851   
    303. D(H  60,C  17,C  16,C  20)     52.9734         0.015851   
    304. D(H  60,C  17,C  16,N  15)   -179.6072         0.015851   
    305. D(C  18,C  17,C  16,H  59)    176.2334         0.015851   
    306. D(C  18,C  17,C  16,C  20)    -67.6190         0.015851   
    307. D(C  18,C  17,C  16,N  15)     59.8005         0.015851   
    308. D(O  22,C  18,C  17,H  60)    -19.6829         0.017151   
    309. D(O  22,C  18,C  17,C  16)    101.9628         0.017151   
    310. D(O  19,C  18,C  17,H  61)     47.7732         0.017151   
    311. D(O  19,C  18,C  17,H  60)    160.2907         0.017151   
    312. D(O  19,C  18,C  17,C  16)    -78.0636         0.017151   
    313. D(N  23,C  20,C  16,C  17)    121.5940         0.013326   
    314. D(N  23,C  20,C  16,N  15)     -5.7887         0.013326   
    315. D(O  21,C  20,C  16,H  59)     57.6881         0.013326   
    316. D(O  21,C  20,C  16,C  17)    -58.2110         0.013326   
    317. D(O  21,C  20,C  16,N  15)    174.4062         0.013326   
    318. D(H  62,N  23,C  20,O  21)    171.0078         0.020848   
    319. D(H  62,N  23,C  20,C  16)     -8.8140         0.020848   
    320. D(C  24,N  23,C  20,O  21)     -7.2027         0.020848   
    321. D(C  24,N  23,C  20,C  16)    172.9755         0.020848   
    322. D(H  63,C  24,N  23,C  20)     20.7018         0.017316   
    323. D(C  32,C  24,N  23,H  62)    -32.7630         0.017316   
    324. D(C  32,C  24,N  23,C  20)    145.4237         0.017316   
    325. D(C  25,C  24,N  23,H  62)     88.6808         0.017316   
    326. D(C  25,C  24,N  23,C  20)    -93.1325         0.017316   
    327. D(H  64,C  25,C  24,H  63)   -169.3705         0.012031   
    328. D(H  64,C  25,C  24,C  32)     69.2029         0.012031   
    329. D(H  64,C  25,C  24,N  23)    -51.2560         0.012031   
    330. D(C  26,C  25,C  24,H  63)     62.1788         0.012031   
    331. D(C  26,C  25,C  24,C  32)    -59.2478         0.012031   
    332. D(C  26,C  25,C  24,N  23)   -179.7067         0.012031   
    333. D(C  31,C  26,C  25,H  64)    154.5681         0.019525   
    334. D(C  31,C  26,C  25,C  24)    -80.6727         0.019525   
    335. D(C  27,C  26,C  25,H  65)   -141.7052         0.019525   
    336. D(C  27,C  26,C  25,H  64)    -26.5943         0.019525   
    337. D(C  27,C  26,C  25,C  24)     98.1648         0.019525   
    338. D(H  66,C  27,C  26,C  31)   -178.6486         0.029285   
    339. D(H  66,C  27,C  26,C  25)      2.4858         0.029285   
    340. D(C  28,C  27,C  26,C  31)      0.0217         0.029285   
    341. D(C  28,C  27,C  26,C  25)   -178.8440         0.029285   
    342. D(H  67,C  28,C  27,H  66)     -1.3330         0.030862   
    343. D(H  67,C  28,C  27,C  26)    179.9524         0.030862   
    344. D(C  29,C  28,C  27,H  66)    178.7332         0.030862   
    345. D(C  29,C  28,C  27,C  26)      0.0186         0.030862   
    346. D(H  68,C  29,C  28,H  67)      0.1199         0.032209   
    347. D(H  68,C  29,C  28,C  27)   -179.9454         0.032209   
    348. D(C  30,C  29,C  28,H  67)   -179.9727         0.032209   
    349. D(C  30,C  29,C  28,C  27)     -0.0379         0.032209   
    350. D(H  69,C  30,C  29,H  68)     -0.0876         0.030387   
    351. D(H  69,C  30,C  29,C  28)   -179.9910         0.030387   
    352. D(C  31,C  30,C  29,H  68)    179.9191         0.030387   
    353. D(C  31,C  30,C  29,C  28)      0.0157         0.030387   
    354. D(C  26,C  31,C  30,H  69)   -179.9652         0.031086   
    355. D(C  26,C  31,C  30,C  29)      0.0276         0.031086   
    356. D(H  70,C  31,C  26,C  27)    179.9782         0.024585   
    357. D(H  70,C  31,C  26,C  25)     -1.0513         0.024585   
    358. D(C  30,C  31,C  26,C  27)     -0.0449         0.024585   
    359. D(C  30,C  31,C  26,C  25)    178.9256         0.024585   
    360. D(H  70,C  31,C  30,H  69)      0.0120         0.031086   
    361. D(H  70,C  31,C  30,C  29)   -179.9951         0.031086   
    362. D(N  38,C  32,C  24,C  25)   -153.9971         0.015705   
    363. D(N  38,C  32,C  24,N  23)    -33.7009         0.015705   
    364. D(O  33,C  32,C  24,H  63)    -88.7881         0.015705   
    365. D(O  33,C  32,C  24,C  25)     27.3823         0.015705   
    366. D(O  33,C  32,C  24,N  23)    147.6786         0.015705   
    367. D(C  37,C  35,C  34,H  73)   -152.5421         0.010358   
    368. D(C  37,C  35,C  34,H  72)    -37.9287         0.010358   
    369. D(C  37,C  35,C  34,H  71)     89.6866         0.010358   
    370. D(C  36,C  35,C  34,H  73)    -26.4459         0.010358   
    371. D(C  36,C  35,C  34,H  72)     88.1676         0.010358   
    372. D(C  36,C  35,C  34,H  71)   -144.2172         0.010358   
    373. D(H  76,C  36,C  35,H  74)   -169.1658         0.013940   
    374. D(H  76,C  36,C  35,C  37)     59.2667         0.013940   
    375. D(H  76,C  36,C  35,C  34)    -60.3823         0.013940   
    376. D(H  75,C  36,C  35,H  74)     58.0709         0.013940   
    377. D(H  75,C  36,C  35,C  37)    -73.4966         0.013940   
    378. D(H  75,C  36,C  35,C  34)    166.8544         0.013940   
    379. D(C  40,C  37,C  35,H  74)     62.6258         0.022051   
    380. D(C  40,C  37,C  35,C  36)   -170.3990         0.022051   
    381. D(C  40,C  37,C  35,C  34)    -52.5097         0.022051   
    382. D(N  38,C  37,C  35,H  74)    -64.8075         0.022051   
    383. D(N  38,C  37,C  35,C  36)     62.1676         0.022051   
    384. D(N  38,C  37,C  35,C  34)   -179.9431         0.022051   
    385. D(C  39,N  38,C  37,C  40)     97.7986         0.023015   
    386. D(C  39,N  38,C  37,C  35)   -133.1463         0.023015   
    387. D(C  32,N  38,C  37,H  78)    171.4368         0.023015   
    388. D(C  32,N  38,C  37,C  40)    -86.9674         0.023015   
    389. D(C  32,N  38,C  37,C  35)     42.0877         0.023015   
    390. D(C  39,N  38,C  32,O  33)    156.1484         0.015644   
    391. D(C  39,N  38,C  32,C  24)    -22.6716         0.015644   
    392. D(C  37,N  38,C  32,O  33)    -19.3822         0.015644   
    393. D(C  37,N  38,C  32,C  24)    161.7978         0.015644   
    394. D(H  81,C  39,N  38,C  32)    -18.7817         0.019443   
    395. D(H  80,C  39,N  38,C  37)     44.5493         0.019443   
    396. D(H  80,C  39,N  38,C  32)   -131.2893         0.019443   
    397. D(H  79,C  39,N  38,C  37)    -80.8667         0.019443   
    398. D(H  79,C  39,N  38,C  32)    103.2947         0.019443   
    399. D(O  41,C  40,C  37,C  35)     71.1085         0.009494   
    400. D(N   8,C  40,C  37,H  78)    137.8643         0.009494   
    401. D(N   8,C  40,C  37,N  38)     28.6946         0.009494   
    402. D(N   8,C  40,C  37,C  35)   -108.3903         0.009494   
    403. D(O  41,C  40,N   8,H  54)   -164.6905         0.020624   
    404. D(O  41,C  40,N   8,C   7)     14.1449         0.020624   
    405. D(C  37,C  40,N   8,H  54)     14.8337         0.020624   
    406. D(O  41,C  40,C  37,N  38)   -151.8067         0.009494   
    407. D(C  37,C  40,N   8,C   7)   -166.3308         0.020624   
    -----------------------------------------------------------------

Number of atoms                         .... 82
Number of degrees of freedom            .... 407


         *************************************************************
         *                GEOMETRY OPTIMIZATION CYCLE   1            *
         *************************************************************
---------------------------------
CARTESIAN COORDINATES (ANGSTROEM)
---------------------------------
  N    -5.218000   -5.066000    0.236000
  C    -4.764000   -3.881000    0.892000
  N    -5.389000   -3.397000    1.908000
  N    -3.596000   -3.196000    0.435000
  C    -3.153000   -1.999000    1.113000
  C    -1.901000   -1.411000    0.498000
  C    -2.104000   -1.038000   -0.935000
  C    -0.851000   -0.449000   -1.561000
  N    -0.470000    0.772000   -0.807000
  C     0.265000   -1.414000   -1.471000
  O     0.931000   -1.546000   -0.423000
  N     0.717000   -2.270000   -2.529000
  C     1.858000   -3.100000   -2.218000
  C     3.068000   -2.339000   -1.894000
  O     4.090000   -2.983000   -1.561000
  N     3.265000   -0.923000   -1.908000
  C     4.549000   -0.327000   -1.489000
  C     5.257000    0.293000   -2.632000
  C     4.566000    1.370000   -3.336000
  O     3.645000    1.083000   -4.165000
  C     4.375000    0.581000   -0.314000
  O     5.305000    1.128000    0.294000
  O     4.872000    2.721000   -3.141000
  N     3.077000    0.866000    0.168000
  C     2.687000    1.595000    1.358000
  C     2.489000    0.612000    2.499000
  C     2.089000    1.157000    3.774000
  C     0.808000    1.210000    4.284000
  C     0.488000    1.764000    5.499000
  C     1.495000    2.298000    6.255000
  C     2.796000    2.280000    5.810000
  C     3.081000    1.718000    4.591000
  C     1.448000    2.343000    1.087000
  O     0.551000    2.598000    1.896000
  C    -2.351000    4.283000   -0.721000
  C    -1.099000    4.039000    0.143000
  C    -0.714000    5.399000    0.640000
  C    -0.144000    3.324000   -0.657000
  N     1.131000    2.918000   -0.208000
  C     2.291000    3.149000   -1.018000
  C    -0.802000    2.068000   -1.268000
  O    -1.640000    2.140000   -2.165000
  H    -6.059000   -5.544000    0.611000
  H    -4.687000   -5.410000   -0.598000
  H    -5.098000   -2.541000    2.417000
  H    -6.257000   -3.880000    2.272000
  H    -3.038000   -3.536000   -0.389000
  H    -4.010000   -1.295000    1.083000
  H    -2.960000   -2.190000    2.208000
  H    -1.618000   -0.545000    1.121000
  H    -1.134000   -2.235000    0.571000
  H    -2.379000   -1.948000   -1.497000
  H    -2.939000   -0.326000   -1.018000
  H    -1.080000   -0.142000   -2.573000
  H     0.023000    0.696000    0.067000
  H     0.195000   -2.214000   -3.391000
  H     1.565000   -3.642000   -1.266000
  H     2.041000   -3.859000   -3.017000
  H     2.477000   -0.373000   -2.239000
  H     5.219000   -1.174000   -1.136000
  H     6.233000    0.726000   -2.259000
  H     5.587000   -0.529000   -3.315000
  H     2.315000    0.527000   -0.427000
  H     3.518000    2.251000    1.708000
  H     1.802000   -0.185000    2.112000
  H     3.473000    0.081000    2.633000
  H    -0.018000    0.776000    3.721000
  H    -0.517000    1.784000    5.854000
  H     1.222000    2.735000    7.222000
  H     3.547000    2.719000    6.456000
  H     4.103000    1.715000    4.264000
  H    -3.081000    3.471000   -0.644000
  H    -2.024000    4.509000   -1.762000
  H    -2.896000    5.199000   -0.390000
  H    -1.501000    3.489000    1.029000
  H     0.028000    5.393000    1.459000
  H    -0.474000    6.121000   -0.181000
  H    -1.628000    5.832000    1.127000
  H     0.020000    3.873000   -1.653000
  H     2.412000    2.398000   -1.806000
  H     2.265000    4.204000   -1.441000
  H     3.253000    3.175000   -0.445000

----------------------------
CARTESIAN COORDINATES (A.U.)
----------------------------
  NO LB    ZA    FRAG    MASS        X           Y           Z
   0 N   7.0000    1    14.007   -9.860591   -9.573353    0.445975
   1 C   6.0000    1    12.011   -9.002655   -7.334027    1.685636
   2 N   7.0000    1    14.007  -10.183734   -6.419400    3.605597
   3 N   7.0000    1    14.007   -6.795455   -6.039565    0.822031
   4 C   6.0000    1    12.011   -5.958307   -3.777563    2.103265
   5 C   6.0000    1    12.011   -3.592369   -2.666404    0.941084
   6 C   6.0000    1    12.011   -3.975984   -1.961536   -1.766894
   7 C   6.0000    1    12.011   -1.608157   -0.848487   -2.949862
   8 N   7.0000    1    14.007   -0.888171    1.458869   -1.525009
   9 C   6.0000    1    12.011    0.500777   -2.672073   -2.779787
  10 O   8.0000    1    15.999    1.759335   -2.921517   -0.799354
  11 N   7.0000    1    14.007    1.354934   -4.289678   -4.779117
  12 C   6.0000    1    12.011    3.511111   -5.858151   -4.191413
  13 C   6.0000    1    12.011    5.797680   -4.420069   -3.579141
  14 O   8.0000    1    15.999    7.728980   -5.637053   -2.949862
  15 N   7.0000    1    14.007    6.169956   -1.744217   -3.605597
  16 C   6.0000    1    12.011    8.596364   -0.617940   -2.813802
  17 C   6.0000    1    12.011    9.934290    0.553690   -4.973759
  18 C   6.0000    1    12.011    8.628490    2.588925   -6.304126
  19 O   8.0000    1    15.999    6.888052    2.046573   -7.870709
  20 C   6.0000    1    12.011    8.267552    1.097931   -0.593374
  21 O   8.0000    1    15.999   10.024997    2.131611    0.555579
  22 O   8.0000    1    15.999    9.206746    5.141945   -5.935630
  23 N   7.0000    1    14.007    5.814687    1.636503    0.317474
  24 C   6.0000    1    12.011    5.077694    3.014113    2.566248
  25 C   6.0000    1    12.011    4.703528    1.156512    4.722426
  26 C   6.0000    1    12.011    3.947638    2.186413    7.131826
  27 C   6.0000    1    12.011    1.526899    2.286569    8.095587
  28 C   6.0000    1    12.011    0.922186    3.333477   10.391604
  29 C   6.0000    1    12.011    2.825141    4.342591   11.820237
  30 C   6.0000    1    12.011    5.283674    4.308576   10.979309
  31 C   6.0000    1    12.011    5.822246    3.246549    8.675733
  32 C   6.0000    1    12.011    2.736323    4.427628    2.054132
  33 O   8.0000    1    15.999    1.041239    4.909508    3.582921
  34 C   6.0000    1    12.011   -4.442746    8.093697   -1.362493
  35 C   6.0000    1    12.011   -2.076809    7.632604    0.270231
  36 C   6.0000    1    12.011   -1.349264   10.202631    1.209425
  37 C   6.0000    1    12.011   -0.272121    6.281450   -1.241550
  38 N   7.0000    1    14.007    2.137280    5.514221   -0.393063
  39 C   6.0000    1    12.011    4.329363    5.950748   -1.923741
  40 C   6.0000    1    12.011   -1.515560    3.907954   -2.396173
  41 O   8.0000    1    15.999   -3.099151    4.044014   -4.091257
  42 H   1.0000    1     1.008  -11.449851  -10.476642    1.154623
  43 H   1.0000    1     1.008   -8.857146  -10.223418   -1.130056
  44 H   1.0000    1     1.008   -9.633824   -4.801794    4.567468
  45 H   1.0000    1     1.008  -11.824016   -7.332137    4.293458
  46 H   1.0000    1     1.008   -5.740988   -6.682072   -0.735103
  47 H   1.0000    1     1.008   -7.577802   -2.447195    2.046573
  48 H   1.0000    1     1.008   -5.593589   -4.138500    4.172515
  49 H   1.0000    1     1.008   -3.057577   -1.029901    2.118383
  50 H   1.0000    1     1.008   -2.142949   -4.223538    1.079034
  51 H   1.0000    1     1.008   -4.495658   -3.681187   -2.828920
  52 H   1.0000    1     1.008   -5.553905   -0.616051   -1.923741
  53 H   1.0000    1     1.008   -2.040904   -0.268341   -4.862265
  54 H   1.0000    1     1.008    0.043464    1.315249    0.126612
  55 H   1.0000    1     1.008    0.368497   -4.183854   -6.408061
  56 H   1.0000    1     1.008    2.957421   -6.882383   -2.392393
  57 H   1.0000    1     1.008    3.856931   -7.292453   -5.701304
  58 H   1.0000    1     1.008    4.680852   -0.704868   -4.231097
  59 H   1.0000    1     1.008    9.862481   -2.218538   -2.146729
  60 H   1.0000    1     1.008   11.778663    1.371941   -4.268891
  61 H   1.0000    1     1.008   10.557900   -0.999665   -6.264442
  62 H   1.0000    1     1.008    4.374716    0.995886   -0.806913
  63 H   1.0000    1     1.008    6.648057    4.253774    3.227652
  64 H   1.0000    1     1.008    3.405286   -0.349599    3.991102
  65 H   1.0000    1     1.008    6.563019    0.153068    4.975649
  66 H   1.0000    1     1.008   -0.034015    1.466427    7.031671
  67 H   1.0000    1     1.008   -0.976988    3.371271   11.062457
  68 H   1.0000    1     1.008    2.309245    5.168401   13.647602
  69 H   1.0000    1     1.008    6.702859    5.138165   12.200072
  70 H   1.0000    1     1.008    7.753546    3.240880    8.057792
  71 H   1.0000    1     1.008   -5.822246    6.559239   -1.216984
  72 H   1.0000    1     1.008   -3.824806    8.520775   -3.329697
  73 H   1.0000    1     1.008   -5.472647    9.824686   -0.736993
  74 H   1.0000    1     1.008   -2.836479    6.593254    1.944528
  75 H   1.0000    1     1.008    0.052912   10.191293    2.757110
  76 H   1.0000    1     1.008   -0.895730   11.567014   -0.342040
  77 H   1.0000    1     1.008   -3.076474   11.020883    2.129721
  78 H   1.0000    1     1.008    0.037795    7.318909   -3.123717
  79 H   1.0000    1     1.008    4.558019    4.531563   -3.412845
  80 H   1.0000    1     1.008    4.280230    7.944409   -2.723095
  81 H   1.0000    1     1.008    6.147279    5.999880   -0.840928

      -----------------------------------------------------------      
     |                   =====================                   |     
     |                           x T B                           |     
     |                   =====================                   |     
     |                         S. Grimme                         |     
     |          Mulliken Center for Theoretical Chemistry        |     
     |                    University of Bonn                     |     
      -----------------------------------------------------------      

   * xtb version 6.7.1 (edcfbbe) compiled by 'albert@albert-system' on 2024-07-22

   xtb is free software: you can redistribute it and/or modify it under
   the terms of the GNU Lesser General Public License as published by
   the Free Software Foundation, either version 3 of the License, or
   (at your option) any later version.
   
   xtb is distributed in the hope that it will be useful,
   but WITHOUT ANY WARRANTY; without even the implied warranty of
   MERCHANTABILITY or FITNESS FOR A PARTICULAR PURPOSE.  See the
   GNU Lesser General Public License for more details.
   
   Cite this work as:
   * C. Bannwarth, E. Caldeweyher, S. Ehlert, A. Hansen, P. Pracht,
     J. Seibert, S. Spicher, S. Grimme, WIREs Comput. Mol. Sci., 2020, 11,
     e01493. DOI: 10.1002/wcms.1493
   
   for GFN2-xTB:
   * C. Bannwarth, S. Ehlert and S. Grimme., J. Chem. Theory Comput., 2019,
     15, 1652-1671. DOI: 10.1021/acs.jctc.8b01176
   for GFN1-xTB:
   * S. Grimme, C. Bannwarth, P. Shushkov, J. Chem. Theory Comput., 2017,
     13, 1989-2009. DOI: 10.1021/acs.jctc.7b00118
   for GFN0-xTB:
   * P. Pracht, E. Caldeweyher, S. Ehlert, S. Grimme, ChemRxiv, 2019, preprint.
     DOI: 10.26434/chemrxiv.8326202.v1
   for GFN-FF:
   * S. Spicher and S. Grimme, Angew. Chem. Int. Ed., 2020, 59, 15665-15673.
     DOI: 10.1002/anie.202004239
   
   for ALPB and GBSA implicit solvation:
   * S. Ehlert, M. Stahn, S. Spicher, S. Grimme, J. Chem. Theory Comput.,
     2021, 17, 4250-4261. DOI: 10.1021/acs.jctc.1c00471
   
   for ddCOSMO and CPCM-X implicit solvation:
   * M. Stahn, S. Ehlert, S. Grimme, J. Phys. Chem. A,
     2023, XX, XXXX-XXXX. DOI: 10.1021/acs.jpca.3c04382
   
   for DFT-D4:
   * E. Caldeweyher, C. Bannwarth and S. Grimme, J. Chem. Phys., 2017,
     147, 034112. DOI: 10.1063/1.4993215
   * E. Caldeweyher, S. Ehlert, A. Hansen, H. Neugebauer, S. Spicher,
     C. Bannwarth and S. Grimme, J. Chem. Phys., 2019, 150, 154122.
     DOI: 10.1063/1.5090222
   * E. Caldeweyher, J.-M. Mewes, S. Ehlert and S. Grimme, Phys. Chem. Chem. Phys.
     2020, 22, 8499-8512. DOI: 10.1039/D0CP00502A
   
   for sTDA-xTB:
   * S. Grimme and C. Bannwarth, J. Chem. Phys., 2016, 145, 054103.
     DOI: 10.1063/1.4959605
   
   in the mass-spec context:
   * V. Asgeirsson, C. Bauer and S. Grimme, Chem. Sci., 2017, 8, 4879.
     DOI: 10.1039/c7sc00601b
   * J. Koopman and S. Grimme, ACS Omega 2019, 4, 12, 15120-15133.
     DOI: 10.1021/acsomega.9b02011
   
   for metadynamics refer to:
   * S. Grimme, J. Chem. Theory Comput., 2019, 155, 2847-2862
     DOI: 10.1021/acs.jctc.9b00143
   
   for SPH calculations refer to:
   * S. Spicher and S. Grimme, J. Chem. Theory Comput., 2021, 17, 1701-1714
     DOI: 10.1021/acs.jctc.0c01306
   
   for ONIOM refer to:
   * C. Plett, A. Katbashev, S. Ehlert, S. Grimme, M. Bursch,
     Phys. Chem. Chem. Phys., 2023, 25, 17860-17868. DOI: 10.1039/D3CP02178E
   
   for DIPRO refer to:
   * J. Kohn, N. Gildemeister, S. Grimme, D. Fazzi, A. Hansen,
     J. Chem. Phys., 2023, just accepted.
   
   for PTB refer to:
   * S. Grimme, M. Mueller, A. Hansen, J. Chem. Phys., 2023, 158, 124111.
     DOI: 10.1063/5.0137838
   
   with help from (in alphabetical order)
   P. Atkinson, C. Bannwarth, F. Bohle, G. Brandenburg, E. Caldeweyher
   M. Checinski, S. Dohm, S. Ehlert, S. Ehrlich, I. Gerasimov, C. Hölzer
   A. Katbashev, J. Kohn, J. Koopman, C. Lavigne, S. Lehtola, F. März, M. Müller,
   F. Musil, H. Neugebauer, J. Pisarek, C. Plett, P. Pracht, F. Pultar,
   J. Seibert, P. Shushkov, S. Spicher, M. Stahn, M. Steiner, T. Strunk,
   J. Stückrath, T. Rose, and J. Unsleber
   
 * started run on 2025/12/15 at 15:36:39.243     
   ID    Z sym.   atoms
    1    7 N      1, 3, 4, 9, 12, 16, 24, 39
    2    6 C      2, 5-8, 10, 13, 14, 17-19, 21, 25-33, 35-38, 40, 41
    3    8 O      11, 15, 20, 22, 23, 34, 42
    4    1 H      43-82

           -------------------------------------------------
          |                Calculation Setup                |
           -------------------------------------------------

          program call               : /shared/projects/antioxydant/orca_folder_AMcs/otool_xtb /shared/projects/antioxydant/pep_edit/goat/cilengitide/cilengitide_XTB.xyz --grad -c 0 -u 0 -P 8 --namespace /shared/projects/antioxydant/pep_edit/goat/cilengitide/cilengitide --input /shared/projects/antioxydant/pep_edit/goat/cilengitide/cilengitide_XTB.input.tmp --alpb WATER --acc 0.200000
          hostname                   : cpu-node142
          calculation namespace      : /shared/projects/antioxydant/pep_edit/goat/cilengitide/cilengitide
          coordinate file            : /shared/projects/antioxydant/pep_edit/goat/cilengitide/cilengitide_XTB.xyz
          omp threads                :                     8


           -------------------------------------------------
          |                 G F N 2 - x T B                 |
           -------------------------------------------------

        Reference                      10.1021/acs.jctc.8b01176
      * Hamiltonian:
        H0-scaling (s, p, d)           1.850000    2.230000    2.230000
        zeta-weighting                 0.500000
      * Dispersion:
        s8                             2.700000
        a1                             0.520000
        a2                             5.000000
        s9                             5.000000
      * Repulsion:
        kExp                           1.500000    1.000000
        rExp                           1.000000
      * Coulomb:
        alpha                          2.000000
        third order                    shell-resolved
        anisotropic                    true
        a3                             3.000000
        a5                             4.000000
        cn-shift                       1.200000
        cn-exp                         4.000000
        max-rad                        5.000000

      * Solvation model:               ALPB
        Solvent                        WATER
        Parameter file                 internal GFN2-xTB/ALPB
        Dielectric constant                8.0200E+01
        Reference state                gsolv [1 M gas/solution]
        Free energy shift                  1.0808E-03 Eh       6.7819E-01 kcal/mol
        Temperature                        2.9815E+02 K
        Density                            1.0000E+00 kg/L
        Solvent mass                       1.8000E+01 g/mol
        Interaction kernel             P16
        Born radius scaling (c1)           1.4744E+00
        Born radii integrator          GBOBC
        Born offset                        0.0000E+00 a0       0.0000E+00 AA
        H-bond correction              true
        Ion screening                  false
        Surface tension                    1.0000E-05 Eh       1.5569E+01 dyn/cm
        Grid points                               230 per atom

          ...................................................
          :                      SETUP                      :
          :.................................................:
          :  # basis functions                 208          :
          :  # atomic orbitals                 208          :
          :  # shells                          124          :
          :  # electrons                       230          :
          :  max. iterations                   250          :
          :  Hamiltonian                  GFN2-xTB          :
          :  restarted?                      false          :
          :  GBSA solvation                   true          :
          :  PC potential                    false          :
          :  electronic temp.          300.0000000     K    :
          :  accuracy                    0.2000000          :
          :  -> integral cutoff          0.3198970E+02      :
          :  -> integral neglect         0.2000000E-08      :
          :  -> SCF convergence          0.2000000E-06 Eh   :
          :  -> wf. convergence          0.2000000E-04 e    :
          :  Broyden damping             0.4000000          :
          :  net charge                          0          :
          :  unpaired electrons                  0          :
          ...................................................

 iter      E             dE          RMSdq      gap      omega  full diag
   1   -131.2312960 -0.131231E+03  0.430E+00    2.25       0.0  T
   2   -131.5125706 -0.281275E+00  0.222E+00    2.99       1.0  T
   3   -131.5243427 -0.117721E-01  0.113E+00    3.33       1.0  T
   4   -131.5298797 -0.553703E-02  0.286E-01    2.66       1.0  T
   5   -131.5330786 -0.319886E-02  0.123E-01    2.81       1.0  T
   6   -131.5331839 -0.105279E-03  0.521E-02    2.87       1.0  T
   7   -131.5332019 -0.180491E-04  0.243E-02    2.91       1.0  T
   8   -131.5332129 -0.109728E-04  0.111E-02    2.92       1.0  T
   9   -131.5332151 -0.220774E-05  0.450E-03    2.92       2.5  T
  10   -131.5332153 -0.218230E-06  0.217E-03    2.92       5.1  T
  11   -131.5332154 -0.871219E-07  0.717E-04    2.92      15.4  T
  12   -131.5332154 -0.975575E-08  0.404E-04    2.92      27.3  T
  13   -131.5332154 -0.193086E-08  0.118E-04    2.92      93.2  T
  14   -131.5332154 -0.232035E-09  0.528E-05    2.92     209.3  T

   *** convergence criteria satisfied after 14 iterations ***

         #    Occupation            Energy/Eh            Energy/eV
      -------------------------------------------------------------
         1        2.0000           -0.7237241             -19.6935
       ...           ...                  ...                  ...
       109        2.0000           -0.4010032             -10.9119
       110        2.0000           -0.3993827             -10.8678
       111        2.0000           -0.3890150             -10.5856
       112        2.0000           -0.3881588             -10.5623
       113        2.0000           -0.3845063             -10.4629
       114        2.0000           -0.3824366             -10.4066
       115        2.0000           -0.3685189             -10.0279 (HOMO)
       116                         -0.2610562              -7.1037 (LUMO)
       117                         -0.2553619              -6.9488
       118                         -0.2463699              -6.7041
       119                         -0.2449012              -6.6641
       120                         -0.2389296              -6.5016
       ...                                ...                  ...
       208                          0.7008135              19.0701
      -------------------------------------------------------------
                  HL-Gap            0.1074627 Eh            2.9242 eV
             Fermi-level           -0.3147876 Eh           -8.5658 eV

 SCC (total)                   0 d,  0 h,  0 min,  0.148 sec
 SCC setup                      ...        0 min,  0.003 sec (  1.758%)
 Dispersion                     ...        0 min,  0.002 sec (  1.166%)
 classical contributions        ...        0 min,  0.000 sec (  0.141%)
 integral evaluation            ...        0 min,  0.014 sec (  9.404%)
 iterations                     ...        0 min,  0.104 sec ( 70.122%)
 molecular gradient             ...        0 min,  0.025 sec ( 17.111%)
 printout                       ...        0 min,  0.000 sec (  0.259%)

         :::::::::::::::::::::::::::::::::::::::::::::::::::::
         ::                     SUMMARY                     ::
         :::::::::::::::::::::::::::::::::::::::::::::::::::::
         :: total energy            -130.071126168277 Eh    ::
         :: total w/o Gsasa/hb      -130.055049559625 Eh    ::
         :: gradient norm              0.391503127979 Eh/a0 ::
         :: HOMO-LUMO gap              2.924209977847 eV    ::
         ::.................................................::
         :: SCC energy              -131.529558609717 Eh    ::
         :: -> isotropic ES            0.532419281603 Eh    ::
         :: -> anisotropic ES         -0.006509847076 Eh    ::
         :: -> anisotropic XC          0.047698751582 Eh    ::
         :: -> dispersion             -0.095631010566 Eh    ::
         :: -> Gsolv                  -0.202548813725 Eh    ::
         ::    -> Gelec               -0.186472205073 Eh    ::
         ::    -> Gsasa                0.003276545267 Eh    ::
         ::    -> Ghb                 -0.020433913616 Eh    ::
         ::    -> Gshift               0.001080759698 Eh    ::
         :: repulsion energy           1.458432441441 Eh    ::
         :: add. restraining           0.000000000000 Eh    ::
         :: total charge              -0.000000000000 e     ::
         :::::::::::::::::::::::::::::::::::::::::::::::::::::


Property printout bound to 'properties.out'

           -------------------------------------------------
          | TOTAL ENERGY             -130.071126168277 Eh   |
          | GRADIENT NORM               0.391503127979 Eh/α |
          | HOMO-LUMO GAP               2.924209977847 eV   |
           -------------------------------------------------

------------------------------------------------------------------------
 * finished run on 2025/12/15 at 15:36:39.528     
------------------------------------------------------------------------
 total:
 * wall-time:     0 d,  0 h,  0 min,  0.281 sec
 *  cpu-time:     0 d,  0 h,  0 min,  1.642 sec
 * ratio c/w:     5.842 speedup
 SCF:
 * wall-time:     0 d,  0 h,  0 min,  0.149 sec
 *  cpu-time:     0 d,  0 h,  0 min,  1.190 sec
 * ratio c/w:     7.985 speedup


-------------------------   --------------------
FINAL SINGLE POINT ENERGY      -130.071126168280
-------------------------   --------------------


-------------
DIPOLE MOMENT
-------------
                                X             Y             Z
Total Dipole Moment    :    -18.72800     -11.83700       6.21800
                        -----------------------------------------
Magnitude (a.u.)       :     23.01122
Magnitude (Debye)      :     58.48986

------------------------------------------------------------------------------
                         ORCA GEOMETRY RELAXATION STEP
------------------------------------------------------------------------------

Reading the OPT-File                    .... done
Getting information on internals        .... done
Copying old internal coords+grads       .... done
Making the new internal coordinates     .... (2022 redundants) done
Validating the new internal coordinates .... (2022 redundants) done
Calculating the B-matrix                .... done
Calculating the G,G- and P matrices     .... done
Transforming gradient to internals      .... done
Projecting the internal gradient        .... done
Number of atoms                         ....  82
Number of internal coordinates          .... 407
Current Energy                          ....  -130.071126168 Eh
Current gradient norm                   ....     0.391503128 Eh/bohr
Maximum allowed component of the step   ....  0.300
Current trust radius                    ....  0.300
Evaluating the initial hessian          ....  (Almloef) done
Projecting the Hessian                  .... done
Forming the augmented Hessian           .... done
Diagonalizing the augmented Hessian     .... done
Last element of RFO vector              ....  0.883625599
Lowest eigenvalues of augmented Hessian:
 -0.144126492  0.000752318  0.010395499  0.011532728  0.012008473
Length of the computed step             ....  0.529855847
Warning: the length of the step is outside the trust region - taking restricted step instead
The input lambda is                     ....    -0.000250
   iter:   5  x=   -0.224172  g=    2.104229 f(x)=     0.267692
   iter:  10  x=   -0.523964  g=    0.196146 f(x)=     0.000001
The output lambda is                    ....    -0.523964 (12 iterations)
The final length of the internal step   ....  0.300000000
Converting the step to Cartesian space:
 Initial RMS(Int)=    0.0148704479
Transforming coordinates:
 Iter   0:  RMS(Cart)=    0.0647105866 RMS(Int)=    0.6227188847
 Iter   5:  RMS(Cart)=    0.0000000161 RMS(Int)=    0.0000000071
done
Storing new coordinates                 .... done

                                .--------------------.
          ----------------------|Geometry convergence|-------------------------
          Item                value                   Tolerance       Converged
          ---------------------------------------------------------------------
          RMS gradient        0.0141265387            0.0001000000      NO
          MAX gradient        0.1092047512            0.0003000000      NO
          RMS step            0.0148704479            0.0020000000      NO
          MAX step            0.1024816915            0.0040000000      NO
          ........................................................
          Max(Bonds)      0.0542      Max(Angles)    2.58
          Max(Dihed)        1.44      Max(Improp)    0.00
          ---------------------------------------------------------------------

The optimization has not yet converged - more geometry cycles are needed


    ---------------------------------------------------------------------------
                         Redundant Internal Coordinates
                            (Angstroem and degrees)

        Definition                    Value    dE/dq     Step     New-Value
    ----------------------------------------------------------------------------
     1. B(C   1,N   0)                1.4285  0.081814 -0.0429    1.3856   
     2. B(N   2,C   1)                1.2873 -0.024396  0.0096    1.2969   
     3. B(N   3,C   1)                1.4291  0.073061 -0.0383    1.3908   
     4. B(C   4,N   3)                1.4452 -0.001610  0.0009    1.4461   
     5. B(C   5,C   4)                1.5138 -0.009656  0.0056    1.5193   
     6. B(C   6,C   5)                1.4946 -0.023640  0.0132    1.5078   
     7. B(C   7,C   6)                1.5195 -0.016757  0.0097    1.5292   
     8. B(N   8,C   7)                1.4848  0.022433 -0.0130    1.4718   
     9. B(C   9,C   7)                1.4781 -0.010785  0.0059    1.4840   
    10. B(O  10,C   9)                1.2487  0.020433 -0.0074    1.2413   
    11. B(N  11,C   9)                1.4340  0.049487 -0.0263    1.4077   
    12. B(C  12,N  11)                1.4448  0.000003  0.0001    1.4449   
    13. B(C  13,C  12)                1.4657 -0.014516  0.0077    1.4734   
    14. B(O  14,C  13)                1.2530  0.024329 -0.0089    1.2442   
    15. B(N  15,C  13)                1.4297  0.055616 -0.0293    1.4004   
    16. B(C  16,N  15)                1.4763  0.026123 -0.0148    1.4614   
    17. B(C  17,C  16)                1.4806 -0.028914  0.0157    1.4963   
    18. B(C  18,C  17)                1.4605 -0.027289  0.0144    1.4748   
    19. B(O  19,C  18)                1.2719  0.029429 -0.0112    1.2607   
    20. B(C  20,C  16)                1.4951 -0.008874  0.0044    1.4995   
    21. B(O  21,C  20)                1.2385  0.018273 -0.0064    1.2320   
    22. B(O  22,C  18)                1.3989  0.109205 -0.0542    1.3446   
    23. B(N  23,C  20)                1.4136  0.043678 -0.0227    1.3909   
    24. B(C  24,N  23)                1.4490  0.009046 -0.0048    1.4443   
    25. B(C  25,C  24)                1.5190 -0.021557  0.0125    1.5315   
    26. B(C  26,C  25)                1.4431 -0.034790  0.0177    1.4609   
    27. B(C  27,C  26)                1.3798 -0.005929  0.0026    1.3824   
    28. B(C  28,C  27)                1.3732 -0.012340  0.0056    1.3787   
    29. B(C  29,C  28)                1.3678 -0.018185  0.0081    1.3759   
    30. B(C  30,C  29)                1.3751 -0.011471  0.0052    1.3803   
    31. B(C  31,C  26)                1.4022  0.000847 -0.0005    1.4017   
    32. B(C  31,C  30)                1.3722 -0.008289  0.0036    1.3759   
    33. B(C  32,C  24)                1.4724 -0.018795  0.0100    1.4824   
    34. B(O  33,C  32)                1.2346  0.008538 -0.0030    1.2316   
    35. B(C  35,C  34)                1.5406 -0.011810  0.0071    1.5477   
    36. B(C  36,C  35)                1.4983 -0.020236  0.0113    1.5096   
    37. B(C  37,C  35)                1.4364 -0.061400  0.0309    1.4673   
    38. B(N  38,C  37)                1.4114 -0.022378  0.0112    1.4227   
    39. B(N  38,C  32)                1.4519  0.033280 -0.0184    1.4335   
    40. B(C  39,N  38)                1.4335 -0.011974  0.0063    1.4399   
    41. B(C  40,C  37)                1.5440 -0.006186  0.0037    1.5476   
    42. B(C  40,N   8)                1.4150  0.050742 -0.0258    1.3893   
    43. B(O  41,C  40)                1.2296  0.012013 -0.0041    1.2255   
    44. B(H  42,N   0)                1.0375  0.027256 -0.0158    1.0217   
    45. B(H  43,N   0)                1.0468  0.033437 -0.0196    1.0272   
    46. B(H  44,N   2)                1.0375  0.023620 -0.0137    1.0239   
    47. B(H  45,N   2)                1.0579  0.032184 -0.0192    1.0387   
    48. B(H  46,N   3)                1.0516  0.033821 -0.0200    1.0316   
    49. B(H  47,C   4)                1.1095  0.004956 -0.0031    1.1064   
    50. B(H  48,C   4)                1.1282  0.015834 -0.0100    1.1182   
    51. B(H  49,C   5)                1.1037  0.010022 -0.0061    1.0976   
    52. B(H  50,C   5)                1.1281  0.019273 -0.0122    1.1159   
    53. B(H  51,C   6)                1.1043  0.006967 -0.0043    1.1001   
    54. B(H  52,C   6)                1.1005  0.005389 -0.0033    1.0972   
    55. B(H  53,C   7)                1.0821 -0.007177  0.0042    1.0863   
    56. B(H  54,N   8)                1.0063 -0.000383  0.0002    1.0065   
    57. B(H  55,N  11)                1.0093  0.002147 -0.0012    1.0081   
    58. B(H  56,C  12)                1.1340  0.017146 -0.0109    1.1231   
    59. B(H  57,C  12)                1.1171  0.017350 -0.0108    1.1063   
    60. B(H  58,N  15)                1.0164  0.007597 -0.0042    1.0121   
    61. B(H  59,C  16)                1.1362  0.018537 -0.0118    1.1243   
    62. B(H  60,C  17)                1.1310  0.015142 -0.0096    1.1214   
    63. B(H  61,C  17)                1.1185  0.013102 -0.0082    1.1103   
    64. B(H  62,N  15)                2.2800  0.006982 -0.0057    2.2743   
    65. B(H  62,N  23)                1.0245  0.014050 -0.0078    1.0167   
    66. B(H  63,C  24)                1.1151  0.008469 -0.0053    1.1098   
    67. B(H  64,C  25)                1.1211  0.012097 -0.0076    1.1136   
    68. B(H  65,C  25)                1.1261  0.015121 -0.0095    1.1166   
    69. B(H  66,H  49)                3.3264  0.000252 -0.0002    3.3262   
    70. B(H  66,C  27)                1.0898  0.004112 -0.0024    1.0873   
    71. B(H  67,C  28)                1.0660 -0.007711  0.0044    1.0705   
    72. B(H  68,C  29)                1.0957  0.008052 -0.0049    1.0909   
    73. B(H  69,C  30)                1.0835  0.002297 -0.0014    1.0822   
    74. B(H  70,C  31)                1.0730 -0.006959  0.0041    1.0771   
    75. B(H  71,C  34)                1.0946  0.007939 -0.0048    1.0898   
    76. B(H  72,C  34)                1.1143  0.016817 -0.0104    1.1039   
    77. B(H  73,C  34)                1.1161  0.014909 -0.0093    1.1068   
    78. B(H  74,C  35)                1.1176  0.012099 -0.0075    1.1101   
    79. B(H  75,C  36)                1.1052  0.010779 -0.0066    1.0986   
    80. B(H  76,C  36)                1.1193  0.018894 -0.0118    1.1075   
    81. B(H  77,C  36)                1.1225  0.016176 -0.0101    1.1124   
    82. B(H  78,C  37)                1.1490  0.021479 -0.0140    1.1351   
    83. B(H  79,C  39)                1.0953  0.002165 -0.0013    1.0940   
    84. B(H  80,C  39)                1.1369  0.022472 -0.0144    1.1226   
    85. B(H  81,C  39)                1.1200  0.018603 -0.0116    1.1084   
    86. A(H  42,N   0,H  43)          123.21  0.003027   -0.21    123.00   
    87. A(C   1,N   0,H  42)          118.28 -0.000982    0.07    118.35   
    88. A(C   1,N   0,H  43)          118.51 -0.002045    0.14    118.64   
    89. A(N   0,C   1,N   3)          120.70  0.016603   -1.02    119.67   
    90. A(N   0,C   1,N   2)          121.33  0.002852   -0.16    121.18   
    91. A(N   2,C   1,N   3)          117.97 -0.019454    1.18    119.15   
    92. A(H  44,N   2,H  45)          115.98 -0.001218    0.08    116.06   
    93. A(C   1,N   2,H  44)          124.14  0.002488   -0.16    123.98   
    94. A(C   1,N   2,H  45)          119.88 -0.001269    0.08    119.96   
    95. A(C   4,N   3,H  46)          118.21  0.001786   -0.10    118.11   
    96. A(C   1,N   3,H  46)          121.96  0.010681   -0.70    121.26   
    97. A(C   1,N   3,C   4)          119.83 -0.012466    0.80    120.63   
    98. A(N   3,C   4,H  48)          111.56  0.003975   -0.31    111.25   
    99. A(H  47,C   4,H  48)          105.42 -0.004002    0.34    105.76   
   100. A(C   5,C   4,H  47)          112.42  0.007564   -0.55    111.88   
   101. A(N   3,C   4,H  47)          106.03 -0.009191    0.70    106.72   
   102. A(C   5,C   4,H  48)          108.58  0.000140   -0.06    108.52   
   103. A(N   3,C   4,C   5)          112.62  0.001254   -0.11    112.52   
   104. A(C   6,C   5,H  50)          109.67 -0.002256    0.17    109.84   
   105. A(H  49,C   5,H  50)          111.24  0.005813   -0.49    110.75   
   106. A(C   4,C   5,H  49)          106.71 -0.000291    0.03    106.74   
   107. A(C   4,C   5,C   6)          111.97 -0.003839    0.29    112.26   
   108. A(C   6,C   5,H  49)          112.35  0.004291   -0.36    111.99   
   109. A(C   4,C   5,H  50)          104.61 -0.004210    0.40    105.02   
   110. A(H  51,C   6,H  52)          107.81 -0.002560    0.12    107.93   
   111. A(C   5,C   6,H  52)          109.68  0.000804   -0.06    109.62   
   112. A(C   7,C   6,H  52)          110.11  0.008920   -0.63    109.48   
   113. A(C   7,C   6,H  51)          108.37  0.004781   -0.31    108.06   
   114. A(C   5,C   6,H  51)          108.43 -0.003262    0.30    108.72   
   115. A(C   5,C   6,C   7)          112.32 -0.008641    0.58    112.90   
   116. A(C   6,C   7,C   9)          110.15 -0.001926    0.19    110.34   
   117. A(N   8,C   7,H  53)          107.21  0.002730   -0.22    106.99   
   118. A(N   8,C   7,C   9)          108.19  0.005239   -0.39    107.80   
[...]
		       81     3.518	     1       0.06      96.69
		       82     3.541	     1       0.05      96.75
		       83     3.582	     1       0.05      96.80
		       84     3.584	     1       0.05      96.85
		       85     3.597	     1       0.05      96.90
		       86     3.605	     1       0.05      96.95
		       87     3.628	     1       0.05      96.99
		       88     3.643	     1       0.05      97.04
		       89     3.643	     1       0.05      97.09
		       90     3.646	     1       0.05      97.13
		       91     3.668	     1       0.04      97.18
		       92     3.677	     1       0.04      97.22
		       93     3.686	     1       0.04      97.26
		       94     3.707	     1       0.04      97.30
		       95     3.711	     1       0.04      97.35
		       96     3.726	     1       0.04      97.39
		       97     3.728	     1       0.04      97.43
		       98     3.742	     1       0.04      97.46
		       99     3.748	     1       0.04      97.50
		      100     3.759	     1       0.04      97.54
		      101     3.765	     1       0.04      97.58
		      102     3.766	     1       0.04      97.62
		      103     3.775	     1       0.04      97.65
		      104     3.797	     1       0.04      97.69
		      105     3.799	     1       0.04      97.72
		      106     3.816	     1       0.03      97.76
		      107     3.821	     1       0.03      97.79
		      108     3.823	     1       0.03      97.83
		      109     3.840	     1       0.03      97.86
		      110     3.861	     1       0.03      97.89
		      111     3.862	     1       0.03      97.92
		      112     3.865	     1       0.03      97.95
		      113     3.875	     1       0.03      97.99
		      114     3.888	     1       0.03      98.02
		      115     3.889	     1       0.03      98.05
		      116     3.890	     1       0.03      98.08
		      117     3.906	     1       0.03      98.11
		      118     3.909	     1       0.03      98.14
		      119     3.915	     1       0.03      98.17
		      120     3.919	     1       0.03      98.19
		      121     3.922	     1       0.03      98.22
		      122     3.923	     1       0.03      98.25
		      123     3.925	     1       0.03      98.28
		      124     3.927	     1       0.03      98.31
		      125     3.929	     1       0.03      98.34
		      126     3.929	     1       0.03      98.37
		      127     3.943	     1       0.03      98.39
		      128     3.985	     1       0.03      98.42
		      129     3.989	     1       0.03      98.45
		      130     4.007	     1       0.02      98.47
		      131     4.013	     1       0.02      98.50
		      132     4.014	     1       0.02      98.52
		      133     4.056	     1       0.02      98.54
		      134     4.065	     1       0.02      98.57
		      135     4.065	     1       0.02      98.59
		      136     4.084	     1       0.02      98.61
		      137     4.084	     1       0.02      98.63
		      138     4.096	     1       0.02      98.65
		      139     4.115	     1       0.02      98.67
		      140     4.121	     1       0.02      98.69
		      141     4.129	     1       0.02      98.71
		      142     4.137	     1       0.02      98.73
		      143     4.160	     1       0.02      98.75
		      144     4.182	     1       0.02      98.77
		      145     4.195	     1       0.02      98.79
		      146     4.203	     1       0.02      98.81
		      147     4.213	     1       0.02      98.83
		      148     4.214	     1       0.02      98.84
		      149     4.224	     1       0.02      98.86
		      150     4.243	     1       0.02      98.88
		      151     4.262	     1       0.02      98.89
		      152     4.269	     1       0.02      98.91
		      153     4.273	     1       0.02      98.93
		      154     4.275	     1       0.02      98.94
		      155     4.278	     1       0.02      98.96
		      156     4.299	     1       0.02      98.97
		      157     4.301	     1       0.02      98.99
		      158     4.319	     1       0.01      99.00
		      159     4.327	     1       0.01      99.02
		      160     4.330	     1       0.01      99.03
		      161     4.340	     1       0.01      99.05
		      162     4.353	     1       0.01      99.06
		      163     4.359	     1       0.01      99.07
		      164     4.372	     1       0.01      99.09
		      165     4.397	     1       0.01      99.10
		      166     4.397	     1       0.01      99.11
		      167     4.401	     1       0.01      99.13
		      168     4.420	     1       0.01      99.14
		      169     4.421	     1       0.01      99.15
		      170     4.423	     1       0.01      99.16
		      171     4.426	     1       0.01      99.18
		      172     4.427	     1       0.01      99.19
		      173     4.431	     1       0.01      99.20
		      174     4.462	     1       0.01      99.21
		      175     4.464	     1       0.01      99.22
		      176     4.494	     1       0.01      99.23
		      177     4.521	     1       0.01      99.24
		      178     4.531	     1       0.01      99.25
		      179     4.540	     1       0.01      99.26
		      180     4.542	     1       0.01      99.27
		      181     4.554	     1       0.01      99.28
		      182     4.555	     1       0.01      99.29
		      183     4.563	     1       0.01      99.30
		      184     4.575	     1       0.01      99.31
		      185     4.576	     1       0.01      99.32
		      186     4.582	     1       0.01      99.33
		      187     4.591	     1       0.01      99.34
		      188     4.593	     1       0.01      99.35
		      189     4.600	     1       0.01      99.36
		      190     4.613	     1       0.01      99.37
		      191     4.651	     1       0.01      99.38
		      192     4.659	     1       0.01      99.39
		      193     4.668	     1       0.01      99.39
		      194     4.670	     1       0.01      99.40
		      195     4.687	     1       0.01      99.41
		      196     4.690	     1       0.01      99.42
		      197     4.703	     1       0.01      99.43
		      198     4.706	     1       0.01      99.43
		      199     4.713	     1       0.01      99.44
		      200     4.723	     1       0.01      99.45
		      201     4.725	     1       0.01      99.46
		      202     4.726	     1       0.01      99.46
		      203     4.737	     1       0.01      99.47
		      204     4.752	     1       0.01      99.48
		      205     4.769	     1       0.01      99.48
		      206     4.770	     1       0.01      99.49
		      207     4.792	     1       0.01      99.50
		      208     4.797	     1       0.01      99.51
		      209     4.803	     1       0.01      99.51
		      210     4.807	     1       0.01      99.52
		      211     4.818	     1       0.01      99.52
		      212     4.818	     1       0.01      99.53
		      213     4.820	     1       0.01      99.54
		      214     4.823	     1       0.01      99.54
		      215     4.843	     1       0.01      99.55
		      216     4.843	     1       0.01      99.56
		      217     4.855	     1       0.01      99.56
		      218     4.866	     1       0.01      99.57
		      219     4.870	     1       0.01      99.57
		      220     4.877	     1       0.01      99.58
		      221     4.892	     1       0.01      99.58
		      222     4.897	     1       0.01      99.59
		      223     4.904	     1       0.01      99.60
		      224     4.928	     1       0.01      99.60
		      225     4.933	     1       0.01      99.61
		      226     4.957	     1       0.01      99.61
		      227     4.958	     1       0.01      99.62
		      228     4.964	     1       0.00      99.62
		      229     4.976	     1       0.00      99.63
		      230     4.989	     1       0.00      99.63
		      231     4.989	     1       0.00      99.64
		      232     4.991	     1       0.00      99.64
		      233     4.996	     1       0.00      99.64
		      234     5.002	     1       0.00      99.65
		      235     5.005	     1       0.00      99.65
		      236     5.005	     1       0.00      99.66
		      237     5.016	     1       0.00      99.66
		      238     5.017	     1       0.00      99.67
		      239     5.019	     1       0.00      99.67
		      240     5.019	     1       0.00      99.68
		      241     5.025	     1       0.00      99.68
		      242     5.036	     1       0.00      99.69
		      243     5.038	     1       0.00      99.69
		      244     5.039	     1       0.00      99.69
		      245     5.051	     1       0.00      99.70
		      246     5.051	     1       0.00      99.70
		      247     5.052	     1       0.00      99.71
		      248     5.056	     1       0.00      99.71
		      249     5.063	     1       0.00      99.72
		      250     5.070	     1       0.00      99.72
		      251     5.075	     1       0.00      99.72
		      252     5.081	     1       0.00      99.73
		      253     5.082	     1       0.00      99.73
		      254     5.102	     1       0.00      99.74
		      255     5.107	     1       0.00      99.74
		      256     5.111	     1       0.00      99.74
		      257     5.118	     1       0.00      99.75
		      258     5.121	     1       0.00      99.75
		      259     5.121	     1       0.00      99.76
		      260     5.143	     1       0.00      99.76
		      261     5.148	     1       0.00      99.76
		      262     5.151	     1       0.00      99.77
		      263     5.163	     1       0.00      99.77
		      264     5.173	     1       0.00      99.77
		      265     5.193	     1       0.00      99.78
		      266     5.212	     1       0.00      99.78
		      267     5.212	     1       0.00      99.78
		      268     5.216	     1       0.00      99.79
		      269     5.219	     1       0.00      99.79
		      270     5.234	     1       0.00      99.79
		      271     5.237	     1       0.00      99.80
		      272     5.249	     1       0.00      99.80
		      273     5.265	     1       0.00      99.80
		      274     5.267	     1       0.00      99.80
		      275     5.280	     1       0.00      99.81
		      276     5.281	     1       0.00      99.81
		      277     5.283	     1       0.00      99.81
		      278     5.284	     1       0.00      99.82
		      279     5.303	     1       0.00      99.82
		      280     5.309	     1       0.00      99.82
		      281     5.311	     1       0.00      99.82
		      282     5.311	     1       0.00      99.83
		      283     5.319	     1       0.00      99.83
		      284     5.324	     1       0.00      99.83
		      285     5.325	     1       0.00      99.84
		      286     5.326	     1       0.00      99.84
		      287     5.343	     1       0.00      99.84
		      288     5.348	     1       0.00      99.84
		      289     5.348	     1       0.00      99.85
		      290     5.349	     1       0.00      99.85
		      291     5.350	     1       0.00      99.85
		      292     5.352	     1       0.00      99.85
		      293     5.359	     1       0.00      99.86
		      294     5.362	     1       0.00      99.86
		      295     5.371	     1       0.00      99.86
		      296     5.387	     1       0.00      99.86
		      297     5.393	     1       0.00      99.87
		      298     5.444	     1       0.00      99.87
		      299     5.451	     1       0.00      99.87
		      300     5.457	     1       0.00      99.87
		      301     5.471	     1       0.00      99.87
		      302     5.476	     1       0.00      99.88
		      303     5.478	     1       0.00      99.88
		      304     5.483	     1       0.00      99.88
		      305     5.490	     1       0.00      99.88
		      306     5.494	     1       0.00      99.89
		      307     5.496	     1       0.00      99.89
		      308     5.500	     1       0.00      99.89
		      309     5.506	     1       0.00      99.89
		      310     5.511	     1       0.00      99.89
		      311     5.522	     1       0.00      99.90
		      312     5.522	     1       0.00      99.90
		      313     5.530	     1       0.00      99.90
		      314     5.540	     1       0.00      99.90
		      315     5.542	     1       0.00      99.90
		      316     5.544	     1       0.00      99.90
		      317     5.549	     1       0.00      99.91
		      318     5.552	     1       0.00      99.91
		      319     5.559	     1       0.00      99.91
		      320     5.562	     1       0.00      99.91
		      321     5.568	     1       0.00      99.91
		      322     5.570	     1       0.00      99.92
		      323     5.578	     1       0.00      99.92
		      324     5.590	     1       0.00      99.92
		      325     5.597	     1       0.00      99.92
		      326     5.603	     1       0.00      99.92
		      327     5.606	     1       0.00      99.92
		      328     5.616	     1       0.00      99.93
		      329     5.617	     1       0.00      99.93
		      330     5.635	     1       0.00      99.93
		      331     5.635	     1       0.00      99.93
		      332     5.649	     1       0.00      99.93
		      333     5.661	     1       0.00      99.93
		      334     5.665	     1       0.00      99.94
		      335     5.670	     1       0.00      99.94
		      336     5.673	     1       0.00      99.94
		      337     5.674	     1       0.00      99.94
		      338     5.677	     1       0.00      99.94
		      339     5.687	     1       0.00      99.94
		      340     5.698	     1       0.00      99.94
		      341     5.699	     1       0.00      99.95
		      342     5.705	     1       0.00      99.95
		      343     5.708	     1       0.00      99.95
		      344     5.708	     1       0.00      99.95
		      345     5.730	     1       0.00      99.95
		      346     5.741	     1       0.00      99.95
		      347     5.742	     1       0.00      99.95
		      348     5.747	     1       0.00      99.95
		      349     5.755	     1       0.00      99.96
		      350     5.764	     1       0.00      99.96
		      351     5.764	     1       0.00      99.96
		      352     5.766	     1       0.00      99.96
		      353     5.770	     1       0.00      99.96
		      354     5.806	     1       0.00      99.96
		      355     5.815	     1       0.00      99.96
		      356     5.815	     1       0.00      99.96
		      357     5.821	     1       0.00      99.97
		      358     5.823	     1       0.00      99.97
		      359     5.828	     1       0.00      99.97
		      360     5.828	     1       0.00      99.97
		      361     5.829	     1       0.00      99.97
		      362     5.830	     1       0.00      99.97
		      363     5.834	     1       0.00      99.97
		      364     5.836	     1       0.00      99.97
		      365     5.841	     1       0.00      99.98
		      366     5.843	     1       0.00      99.98
		      367     5.844	     1       0.00      99.98
		      368     5.846	     1       0.00      99.98
		      369     5.848	     1       0.00      99.98
		      370     5.852	     1       0.00      99.98
		      371     5.866	     1       0.00      99.98
		      372     5.879	     1       0.00      99.98
		      373     5.890	     1       0.00      99.98
		      374     5.897	     1       0.00      99.99
		      375     5.904	     1       0.00      99.99
		      376     5.913	     1       0.00      99.99
		      377     5.915	     1       0.00      99.99
		      378     5.926	     1       0.00      99.99
		      379     5.929	     1       0.00      99.99
		      380     5.936	     1       0.00      99.99
		      381     5.961	     1       0.00      99.99
		      382     5.964	     1       0.00      99.99
		      383     5.968	     1       0.00      99.99
		      384     5.972	     1       0.00      99.99
		      385     5.974	     1       0.00     100.00
		      386     5.978	     1       0.00     100.00
		      387     5.989	     1       0.00     100.00
		      388     5.990	     1       0.00     100.00
		      389     5.991	     1       0.00     100.00
		      390     5.995	     1       0.00     100.00

		Conformers below 3 kcal/mol: 52
		Lowest energy conformer    : -130.294092 Eh
		Sconf at 298.15 K          :  6.63 cal/(molK)
		Gconf at 298.15 K          : -0.91 kcal/mol

		Writing final ensemble to /shared/projects/antioxydant/pep_edit/goat/cilengitide/cilengitide.finalensemble.xyz

--------------------------------
SUGGESTED CITATIONS FOR THIS RUN
--------------------------------

Below you find a list of papers that are relevant to this ORCA run
We neither can nor want to force you to cite these papers, but we appreciate if you do
You receive ORCA, which is the product of decades of hard work by many enthusiastic individuals, for free
The only thing we kindly ask in return is that you cite our papers,
We deeply appreciate it, if you show your appreciation for ORCA by not just citing the generic ORCA reference.

Please note that relegating all ORCA citations to the supporting information does *not* help us.
SI sections are not indexed - citations you put there will not count into any citation statistics
But we need these citations in order to attract the funding resources that allow us to do what we are doing

Therefore, if you are a happy ORCA user, please consider citing a few of the papers listed below in the main body of your paper

In addition to the list printed below, the program has created the file /shared/projects/antioxydant/pep_edit/goat/cilengitide/cilengitide.bibtex that contains the list in bibtex format
You can import this file easily into all common literature databanks and citation aid programs


List of essential papers. We consider these as the minimum necessary citations

  1. Bannwarth,C.; Ehlert,S.; Grimme,S.
     GFN2-xTB—An Accurate and Broadly Parametrized Self-Consistent Tight-Binding Quantum Chemical Method with Multipole Electrostatics and Density-Dependent Dispersion Contributions
     J. Chem. Theory Comput., 2019 15(3)1652-1671
     doi.org/10.1021/acs.jctc.8b01176
  2. Neese,F.
     Software update: the ORCA program system, version 5.0
     WIRES Comput. Molec. Sci., 2022 12(1)e1606
     doi.org/10.1002/wcms.1606

List of papers to cite with high priority. The work reported in these papers was absolutely
necessary for this run to complete.
Our perspective: the developers of density functionals and basis sets usually get cited in chemistry papers
Good! But without the algorithms to do something with them, the functionals or basis sets would not do anything.
Hence, in our opinion, the algorithm design and method developments papers are equally worthy of getting cited

  1. Bannwarth,C.; Caldeweyher,E.; Ehlert,S.; Hansen,A.; Pracht,P.; Seibert,J.; Spicher,S.; Grimme,S.
     Extended tight-binding quantum chemistry methods
     WIRES Comput. Molec. Sci., 2020 11(2)e1493
     doi.org/10.1002/wcms.1493

List of suggested additional citations. These are papers that are important in the 'surrounding' of 
of this run, or papers that preceded the highly important papers. If you like your results we are grateful for a citation.

  1. Neese,F.
     The ORCA program system
     WIRES Comput. Molec. Sci., 2012 2(1)73-78
     doi.org/10.1002/wcms.81
  2. Neese,F.
     Software update: the ORCA program system, version 4.0
     WIRES Comput. Molec. Sci., 2018 8(1)1-6
     doi.org/10.1002/wcms.1327
  3. Neese,F.; Wennmohs,F.; Becker,U.; Riplinger,C.
     The ORCA quantum chemistry program package
     J. Chem. Phys., 2020 152 Art. No. L224108
     doi.org/10.1063/5.0004608

List of optional additional citations

  1. Neese,F.
     Approximate second-order SCF convergence for spin unrestricted wavefunctions
     Chem. Phys. Lett., 2000 325(1-3)93-98
     doi.org/10.1016/s0009-2614(00)00662-x

Timings for individual modules:

Sum of individual times          ...    87215.125 sec (=1453.585 min)
Geometry relaxation              ...        2.555 sec (=   0.043 min)   0.0 %
GOAT                             ...    87206.405 sec (=1453.440 min) 100.0 %
XTB module                       ...        6.166 sec (=   0.103 min)   0.0 %
                             ****ORCA TERMINATED NORMALLY****
TOTAL RUN TIME: 1 days 0 hours 13 minutes 37 seconds 856 msec
